
Host: CMDADMINs-Air

Timers On : Fri Jan  3 10:27:12 2025
Timers Off: Fri Jan  3 10:27:25 2025

Wall Time:       13.27 seconds

                                                       Time (seconds)
Module                                       User      System        Wall        Calls

--------------------------------------------------------------------------------------

**************************************************************************************

Host: CMDADMINs-Air

Timers On : Fri Jan  3 10:36:50 2025
Timers Off: Fri Jan  3 10:37:01 2025

Wall Time:       11.78 seconds

                                                       Time (seconds)
Module                                       User      System        Wall        Calls

--------------------------------------------------------------------------------------

**************************************************************************************

Host: CMDADMINs-Air

Timers On : Fri Jan  3 10:58:36 2025
Timers Off: Fri Jan  3 10:58:37 2025

Wall Time:        1.03 seconds

                                                       Time (seconds)
Module                                       User      System        Wall        Calls

--------------------------------------------------------------------------------------

**************************************************************************************

Host: CMDADMINs-Air

Timers On : Fri Jan  3 10:58:46 2025
Timers Off: Fri Jan  3 10:58:48 2025

Wall Time:        1.38 seconds

                                                       Time (seconds)
Module                                       User      System        Wall        Calls

--------------------------------------------------------------------------------------

**************************************************************************************

Host: CMDADMINs-Air

Timers On : Fri Jan  3 11:07:41 2025
Timers Off: Fri Jan  3 11:07:43 2025

Wall Time:        2.03 seconds

                                                       Time (seconds)
Module                                       User      System        Wall        Calls

--------------------------------------------------------------------------------------

**************************************************************************************

Host: CMDADMINs-Air

Timers On : Fri Jan  3 11:13:55 2025
Timers Off: Fri Jan  3 11:13:57 2025

Wall Time:        2.20 seconds

                                                       Time (seconds)
Module                                       User      System        Wall        Calls

--------------------------------------------------------------------------------------

**************************************************************************************
