
Host: login02.cluster

Timers On : Fri Aug  9 08:33:03 2024
Timers Off: Fri Aug  9 08:33:36 2024

Wall Time:       33.15 seconds

                                                       Time (seconds)
Module                                       User      System        Wall        Calls

--------------------------------------------------------------------------------------

**************************************************************************************
