
Host: login02.cluster

Timers On : Fri Aug  9 10:08:32 2024
Timers Off: Fri Aug  9 10:08:36 2024

Wall Time:        4.22 seconds

                                                       Time (seconds)
Module                                       User      System        Wall        Calls

--------------------------------------------------------------------------------------

**************************************************************************************
