
Host: login02.cluster

Timers On : Tue Aug 13 10:55:41 2024
Timers Off: Tue Aug 13 10:56:13 2024

Wall Time:       31.38 seconds

                                                       Time (seconds)
Module                                       User      System        Wall        Calls

--------------------------------------------------------------------------------------

**************************************************************************************
