
Host: login02.cluster

Timers On : Thu Aug  8 08:06:04 2024
Timers Off: Thu Aug  8 08:06:33 2024

Wall Time:       29.00 seconds

                                                       Time (seconds)
Module                                       User      System        Wall        Calls

--------------------------------------------------------------------------------------

**************************************************************************************

Host: login02.cluster

Timers On : Thu Aug  8 08:09:51 2024
Timers Off: Thu Aug  8 08:09:58 2024

Wall Time:        6.53 seconds

                                                       Time (seconds)
Module                                       User      System        Wall        Calls

--------------------------------------------------------------------------------------

**************************************************************************************

Host: login02.cluster

Timers On : Thu Aug  8 08:11:11 2024
Timers Off: Thu Aug  8 08:11:13 2024

Wall Time:        2.55 seconds

                                                       Time (seconds)
Module                                       User      System        Wall        Calls

--------------------------------------------------------------------------------------

**************************************************************************************

Host: login02.cluster

Timers On : Thu Aug  8 08:11:24 2024
Timers Off: Thu Aug  8 08:11:27 2024

Wall Time:        2.20 seconds

                                                       Time (seconds)
Module                                       User      System        Wall        Calls

--------------------------------------------------------------------------------------

**************************************************************************************

Host: login02.cluster

Timers On : Thu Aug  8 08:16:16 2024
Timers Off: Thu Aug  8 08:16:18 2024

Wall Time:        2.79 seconds

                                                       Time (seconds)
Module                                       User      System        Wall        Calls

--------------------------------------------------------------------------------------

**************************************************************************************

Host: login02.cluster

Timers On : Thu Aug  8 08:23:21 2024
Timers Off: Thu Aug  8 08:23:23 2024

Wall Time:        2.49 seconds

                                                       Time (seconds)
Module                                       User      System        Wall        Calls

--------------------------------------------------------------------------------------

**************************************************************************************

Host: login02.cluster

Timers On : Thu Aug  8 08:23:51 2024
Timers Off: Thu Aug  8 08:23:54 2024

Wall Time:        2.62 seconds

                                                       Time (seconds)
Module                                       User      System        Wall        Calls

--------------------------------------------------------------------------------------

**************************************************************************************

Host: login02.cluster

Timers On : Thu Aug  8 08:29:38 2024
Timers Off: Thu Aug  8 08:29:41 2024

Wall Time:        3.00 seconds

                                                       Time (seconds)
Module                                       User      System        Wall        Calls

--------------------------------------------------------------------------------------

**************************************************************************************

Host: login02.cluster

Timers On : Thu Aug  8 14:04:46 2024
Timers Off: Thu Aug  8 14:04:47 2024

Wall Time:        1.04 seconds

                                                       Time (seconds)
Module                                       User      System        Wall        Calls

--------------------------------------------------------------------------------------

**************************************************************************************

Host: login02.cluster

Timers On : Thu Aug  8 14:06:19 2024
Timers Off: Thu Aug  8 14:06:20 2024

Wall Time:        1.03 seconds

                                                       Time (seconds)
Module                                       User      System        Wall        Calls

--------------------------------------------------------------------------------------

**************************************************************************************

Host: login02.cluster

Timers On : Thu Aug  8 14:15:22 2024
Timers Off: Thu Aug  8 14:15:23 2024

Wall Time:        0.96 seconds

                                                       Time (seconds)
Module                                       User      System        Wall        Calls

--------------------------------------------------------------------------------------

**************************************************************************************

Host: login02.cluster

Timers On : Thu Aug  8 14:16:56 2024
Timers Off: Thu Aug  8 14:16:57 2024

Wall Time:        1.02 seconds

                                                       Time (seconds)
Module                                       User      System        Wall        Calls

--------------------------------------------------------------------------------------

**************************************************************************************

Host: login02.cluster

Timers On : Thu Aug  8 14:43:03 2024
Timers Off: Thu Aug  8 14:43:04 2024

Wall Time:        0.97 seconds

                                                       Time (seconds)
Module                                       User      System        Wall        Calls

--------------------------------------------------------------------------------------

**************************************************************************************

Host: login02.cluster

Timers On : Thu Aug  8 14:47:16 2024
Timers Off: Thu Aug  8 14:47:17 2024

Wall Time:        1.03 seconds

                                                       Time (seconds)
Module                                       User      System        Wall        Calls

--------------------------------------------------------------------------------------

**************************************************************************************

Host: login02.cluster

Timers On : Thu Aug  8 15:07:01 2024
Timers Off: Thu Aug  8 15:07:05 2024

Wall Time:        3.73 seconds

                                                       Time (seconds)
Module                                       User      System        Wall        Calls

--------------------------------------------------------------------------------------

**************************************************************************************

Host: login02.cluster

Timers On : Thu Aug  8 15:20:39 2024
Timers Off: Thu Aug  8 15:20:40 2024

Wall Time:        0.99 seconds

                                                       Time (seconds)
Module                                       User      System        Wall        Calls

--------------------------------------------------------------------------------------

**************************************************************************************

Host: login02.cluster

Timers On : Thu Aug  8 15:24:56 2024
Timers Off: Thu Aug  8 15:25:01 2024

Wall Time:        4.39 seconds

                                                       Time (seconds)
Module                                       User      System        Wall        Calls

--------------------------------------------------------------------------------------

**************************************************************************************

Host: login02.cluster

Timers On : Thu Aug  8 15:26:22 2024
Timers Off: Thu Aug  8 15:26:26 2024

Wall Time:        3.92 seconds

                                                       Time (seconds)
Module                                       User      System        Wall        Calls

--------------------------------------------------------------------------------------

**************************************************************************************
